# vtk DataFile Version 2.0
Calculation  at time 1.100000000000e+01 
ASCII
DATASET UNSTRUCTURED_GRID
Field FieldData 1
Time 1 1 double
1.100000000000e+01

POINTS 1028 float
0.0 0.0 0.0 
5.000000000000e+01 -1.000000000000e+01 0.0 
0.0 -2.000000000000e+01 0.0 
5.000000000000e+01 -2.000000000000e+01 0.0 
0.0 -9.999999999991e-01 0.0 
0.0 -1.999999999998e+00 0.0 
0.0 -2.999999999997e+00 0.0 
0.0 -3.999999999994e+00 0.0 
0.0 -4.999999999991e+00 0.0 
0.0 -5.999999999988e+00 0.0 
0.0 -6.999999999985e+00 0.0 
0.0 -7.999999999982e+00 0.0 
0.0 -8.999999999983e+00 0.0 
0.0 -9.999999999985e+00 0.0 
0.0 -1.099999999999e+01 0.0 
0.0 -1.199999999999e+01 0.0 
0.0 -1.299999999999e+01 0.0 
0.0 -1.399999999999e+01 0.0 
0.0 -1.499999999999e+01 0.0 
0.0 -1.599999999999e+01 0.0 
0.0 -1.700000000000e+01 0.0 
0.0 -1.800000000000e+01 0.0 
0.0 -1.900000000000e+01 0.0 
4.900000000001e+01 -2.000000000000e+01 0.0 
4.800000000001e+01 -2.000000000000e+01 0.0 
4.700000000002e+01 -2.000000000000e+01 0.0 
4.600000000003e+01 -2.000000000000e+01 0.0 
4.500000000004e+01 -2.000000000000e+01 0.0 
4.400000000004e+01 -2.000000000000e+01 0.0 
4.300000000005e+01 -2.000000000000e+01 0.0 
4.200000000006e+01 -2.000000000000e+01 0.0 
4.100000000006e+01 -2.000000000000e+01 0.0 
4.000000000007e+01 -2.000000000000e+01 0.0 
3.900000000008e+01 -2.000000000000e+01 0.0 
3.800000000009e+01 -2.000000000000e+01 0.0 
3.700000000009e+01 -2.000000000000e+01 0.0 
3.600000000010e+01 -2.000000000000e+01 0.0 
3.500000000011e+01 -2.000000000000e+01 0.0 
3.400000000011e+01 -2.000000000000e+01 0.0 
3.300000000012e+01 -2.000000000000e+01 0.0 
3.200000000013e+01 -2.000000000000e+01 0.0 
3.100000000013e+01 -2.000000000000e+01 0.0 
3.000000000013e+01 -2.000000000000e+01 0.0 
2.900000000013e+01 -2.000000000000e+01 0.0 
2.800000000013e+01 -2.000000000000e+01 0.0 
2.700000000013e+01 -2.000000000000e+01 0.0 
2.600000000013e+01 -2.000000000000e+01 0.0 
2.500000000013e+01 -2.000000000000e+01 0.0 
2.400000000013e+01 -2.000000000000e+01 0.0 
2.300000000013e+01 -2.000000000000e+01 0.0 
2.200000000013e+01 -2.000000000000e+01 0.0 
2.100000000013e+01 -2.000000000000e+01 0.0 
2.000000000013e+01 -2.000000000000e+01 0.0 
1.900000000013e+01 -2.000000000000e+01 0.0 
1.800000000013e+01 -2.000000000000e+01 0.0 
1.700000000012e+01 -2.000000000000e+01 0.0 
1.600000000011e+01 -2.000000000000e+01 0.0 
1.500000000011e+01 -2.000000000000e+01 0.0 
1.400000000010e+01 -2.000000000000e+01 0.0 
1.300000000009e+01 -2.000000000000e+01 0.0 
1.200000000009e+01 -2.000000000000e+01 0.0 
1.100000000008e+01 -2.000000000000e+01 0.0 
1.000000000007e+01 -2.000000000000e+01 0.0 
9.000000000064e+00 -2.000000000000e+01 0.0 
8.000000000057e+00 -2.000000000000e+01 0.0 
7.000000000050e+00 -2.000000000000e+01 0.0 
6.000000000043e+00 -2.000000000000e+01 0.0 
5.000000000036e+00 -2.000000000000e+01 0.0 
4.000000000028e+00 -2.000000000000e+01 0.0 
3.000000000021e+00 -2.000000000000e+01 0.0 
2.000000000014e+00 -2.000000000000e+01 0.0 
1.000000000007e+00 -2.000000000000e+01 0.0 
5.000000000000e+01 -1.100000000000e+01 0.0 
5.000000000000e+01 -1.200000000000e+01 0.0 
5.000000000000e+01 -1.300000000000e+01 0.0 
5.000000000000e+01 -1.400000000000e+01 0.0 
5.000000000000e+01 -1.500000000000e+01 0.0 
5.000000000000e+01 -1.600000000000e+01 0.0 
5.000000000000e+01 -1.700000000000e+01 0.0 
5.000000000000e+01 -1.800000000000e+01 0.0 
5.000000000000e+01 -1.900000000000e+01 0.0 
2.000000000000e+01 0.0 0.0 
3.500000000000e+01 -1.000000000000e+01 0.0 
2.150000000000e+01 -1.000000000000e+00 0.0 
2.300000000000e+01 -2.000000000000e+00 0.0 
2.450000000000e+01 -3.000000000000e+00 0.0 
2.600000000000e+01 -4.000000000000e+00 0.0 
2.750000000000e+01 -5.000000000000e+00 0.0 
2.900000000000e+01 -6.000000000000e+00 0.0 
3.050000000000e+01 -7.000000000000e+00 0.0 
3.200000000000e+01 -8.000000000000e+00 0.0 
3.350000000000e+01 -9.000000000000e+00 0.0 
4.900000000000e+01 -1.000000000000e+01 0.0 
4.800000000000e+01 -1.000000000000e+01 0.0 
4.700000000000e+01 -1.000000000000e+01 0.0 
4.600000000000e+01 -1.000000000000e+01 0.0 
4.500000000000e+01 -1.000000000000e+01 0.0 
4.400000000000e+01 -1.000000000000e+01 0.0 
4.300000000000e+01 -1.000000000000e+01 0.0 
4.200000000000e+01 -1.000000000000e+01 0.0 
4.100000000000e+01 -1.000000000000e+01 0.0 
4.000000000000e+01 -1.000000000000e+01 0.0 
3.900000000000e+01 -1.000000000000e+01 0.0 
3.800000000000e+01 -1.000000000000e+01 0.0 
3.700000000000e+01 -1.000000000000e+01 0.0 
3.600000000000e+01 -1.000000000000e+01 0.0 
1.900000000000e+01 0.0 0.0 
1.800000000000e+01 0.0 0.0 
1.700000000000e+01 0.0 0.0 
1.600000000000e+01 0.0 0.0 
1.500000000000e+01 0.0 0.0 
1.400000000000e+01 0.0 0.0 
1.300000000000e+01 0.0 0.0 
1.200000000000e+01 0.0 0.0 
1.100000000000e+01 0.0 0.0 
1.000000000000e+01 0.0 0.0 
9.000000000000e+00 0.0 0.0 
8.000000000000e+00 0.0 0.0 
7.000000000000e+00 0.0 0.0 
6.000000000000e+00 0.0 0.0 
5.000000000000e+00 0.0 0.0 
4.000000000000e+00 0.0 0.0 
3.000000000000e+00 0.0 0.0 
2.000000000000e+00 0.0 0.0 
1.000000000000e+00 0.0 0.0 
2.075000000000e+01 -5.000000000006e-01 0.0 
2.225000000000e+01 -1.500000000000e+00 0.0 
2.375000000000e+01 -2.500000000000e+00 0.0 
2.525000000000e+01 -3.500000000000e+00 0.0 
2.675000000000e+01 -4.500000000000e+00 0.0 
2.825000000000e+01 -5.500000000000e+00 0.0 
2.975000000000e+01 -6.500000000000e+00 0.0 
3.125000000000e+01 -7.500000000000e+00 0.0 
3.275000000000e+01 -8.500000000000e+00 0.0 
3.425000000000e+01 -9.500000000000e+00 0.0 
2.226951693683e+01 -2.403913980114e+00 0.0 
1.650149491944e+01 -1.913490915758e+01 0.0 
1.050042386896e+01 -8.504605092970e-01 0.0 
1.553146524712e+01 -8.281255032105e-01 0.0 
1.150000000008e+01 -1.913397459621e+01 0.0 
2.530060260647e+01 -4.428336431260e+00 0.0 
8.651114563942e-01 -1.052096295641e+01 0.0 
2.050000000013e+01 -1.913397459622e+01 0.0 
2.819198729811e+01 -6.399519052838e+00 0.0 
2.445670302931e+01 -1.915649188023e+01 0.0 
3.117591465718e+01 -8.394293040695e+00 0.0 
7.465053044742e+00 -1.920411160581e+01 0.0 
6.398295709691e+00 -8.230098819370e-01 0.0 
2.849659607461e+01 -1.914296187762e+01 0.0 
3.418732642882e+01 -1.040265792588e+01 0.0 
8.386450935063e-01 -6.533605142809e+00 0.0 
9.178661865596e-01 -1.329769195597e+01 0.0 
3.149448624493e+01 -1.910466733764e+01 0.0 
3.552916747426e+01 -1.914628590759e+01 0.0 
4.449210346537e+01 -1.914359085008e+01 0.0 
4.140975975145e+01 -1.906941860733e+01 0.0 
3.847475958753e+01 -1.916622382724e+01 0.0 
3.653774794640e+01 -1.088712800241e+01 0.0 
4.047886341787e+01 -1.090139014048e+01 0.0 
4.348006339825e+01 -1.092792621489e+01 0.0 
4.919519968029e+01 -1.451526755068e+01 0.0 
4.500000000032e+00 -1.913397459621e+01 0.0 
1.856136921614e+01 -8.212235170404e-01 0.0 
3.499895312306e+00 -8.661165539723e-01 0.0 
9.076088696565e-01 -1.642306201891e+01 0.0 
4.655174095477e+01 -1.086183387525e+01 0.0 
9.430688970604e-01 -3.496112672958e+00 0.0 
3.353992337063e+01 -1.901202090820e+01 0.0 
2.249746016977e+01 -1.921262287282e+01 0.0 
2.650122741777e+01 -1.916123026018e+01 0.0 
1.863571384842e+01 -1.908325534840e+01 0.0 
1.450089971693e+01 -1.917691901860e+01 0.0 
1.350044695317e+01 -8.659695299584e-01 0.0 
3.849987469880e+01 -1.084154983397e+01 0.0 
9.454419857884e+00 -1.900818879936e+01 0.0 
4.917398660523e+01 -1.645692866081e+01 0.0 
8.500000000000e+00 -8.660254037844e-01 0.0 
8.660319230785e-01 -8.500111697188e+00 0.0 
4.649022621545e+01 -1.930506220113e+01 0.0 
2.667688107845e+01 -5.420288124331e+00 0.0 
2.379251615665e+01 -3.412225477429e+00 0.0 
2.966631491830e+01 -7.389030232731e+00 0.0 
3.267915035995e+01 -9.396934932445e+00 0.0 
2.074836922338e+01 -1.320054020319e+00 0.0 
4.915985743621e+01 -1.261973384855e+01 0.0 
2.527129768623e+00 -1.931592414663e+01 0.0 
1.538676247410e+00 -8.436956619311e-01 0.0 
4.908096641539e+01 -1.842484004551e+01 0.0 
3.478612492673e+01 -1.090889364140e+01 0.0 
3.409757055860e+01 -1.131991530427e+01 0.0 
3.501895309466e+01 -1.177687842717e+01 0.0 
3.407758073088e+01 -1.224293381580e+01 0.0 
3.484541875390e+01 -1.277051428430e+01 0.0 
3.400322025842e+01 -1.319022775640e+01 0.0 
3.321672625034e+01 -1.266779191233e+01 0.0 
3.315244139236e+01 -1.360984106532e+01 0.0 
3.236335186892e+01 -1.308463225210e+01 0.0 
3.478337442841e+01 -1.372341158982e+01 0.0 
3.230105923633e+01 -1.403023731610e+01 0.0 
3.150954055289e+01 -1.350301767700e+01 0.0 
3.144604792090e+01 -1.444931742516e+01 0.0 
3.065653897123e+01 -1.392357262981e+01 0.0 
3.071897610812e+01 -1.297447031198e+01 0.0 
2.986790411740e+01 -1.339226181535e+01 0.0 
2.993181466745e+01 -1.244703272398e+01 0.0 
2.908023061869e+01 -1.286254537734e+01 0.0 
2.901619051372e+01 -1.380881655279e+01 0.0 
2.822986160390e+01 -1.327695262116e+01 0.0 
2.829453476870e+01 -1.233265343811e+01 0.0 
2.744542905518e+01 -1.274510491105e+01 0.0 
2.751120089246e+01 -1.180368086886e+01 0.0 
2.666218649885e+01 -1.221619339205e+01 0.0 
2.672371209234e+01 -1.127125228527e+01 0.0 
2.587763216302e+01 -1.168539979114e+01 0.0 
2.581165585299e+01 -1.262994410089e+01 0.0 
2.502890882577e+01 -1.209827323619e+01 0.0 
2.509631327757e+01 -1.115492410304e+01 0.0 
2.424662989877e+01 -1.156630981079e+01 0.0 
2.431704046904e+01 -1.062389179334e+01 0.0 
2.346445438728e+01 -1.103427680694e+01 0.0 
2.339382552877e+01 -1.197964871788e+01 0.0 
2.260936050780e+01 -1.144513277642e+01 0.0 
2.268075012022e+01 -1.049911928216e+01 0.0 
2.182525737661e+01 -1.090920811464e+01 0.0 
2.189682319817e+01 -9.961716944568e+00 0.0 
2.104174127792e+01 -1.037266986667e+01 0.0 
2.111304367575e+01 -9.424179358711e+00 0.0 
2.025306185381e+01 -9.832727364719e+00 0.0 
2.018141124247e+01 -1.079140628871e+01 0.0 
1.938594498257e+01 -1.025147354112e+01 0.0 
1.946106490453e+01 -9.288010758448e+00 0.0 
1.858929958352e+01 -9.706319802516e+00 0.0 
1.851540991219e+01 -1.067205988724e+01 0.0 
1.771485303178e+01 -1.012504443115e+01 0.0 
1.764134552256e+01 -1.109360378538e+01 0.0 
1.683745148095e+01 -1.054496365337e+01 0.0 
1.691852964353e+01 -9.582555261178e+00 0.0 
1.603603813062e+01 -1.000160132379e+01 0.0 
[...]
POINT_DATA 1028

VECTORS coord float
0.0 0.0 0.0 
5.000000000000e+01 -1.000000000000e+01 0.0 
0.0 -2.000000000000e+01 0.0 
5.000000000000e+01 -2.000000000000e+01 0.0 
0.0 -9.999999999991e-01 0.0 
0.0 -1.999999999998e+00 0.0 
0.0 -2.999999999997e+00 0.0 
0.0 -3.999999999994e+00 0.0 
0.0 -4.999999999991e+00 0.0 
0.0 -5.999999999988e+00 0.0 
0.0 -6.999999999985e+00 0.0 
0.0 -7.999999999982e+00 0.0 
0.0 -8.999999999983e+00 0.0 
0.0 -9.999999999985e+00 0.0 
0.0 -1.099999999999e+01 0.0 
0.0 -1.199999999999e+01 0.0 
0.0 -1.299999999999e+01 0.0 
0.0 -1.399999999999e+01 0.0 
0.0 -1.499999999999e+01 0.0 
0.0 -1.599999999999e+01 0.0 
0.0 -1.700000000000e+01 0.0 
0.0 -1.800000000000e+01 0.0 
0.0 -1.900000000000e+01 0.0 
4.900000000001e+01 -2.000000000000e+01 0.0 
4.800000000001e+01 -2.000000000000e+01 0.0 
4.700000000002e+01 -2.000000000000e+01 0.0 
4.600000000003e+01 -2.000000000000e+01 0.0 
4.500000000004e+01 -2.000000000000e+01 0.0 
4.400000000004e+01 -2.000000000000e+01 0.0 
4.300000000005e+01 -2.000000000000e+01 0.0 
4.200000000006e+01 -2.000000000000e+01 0.0 
4.100000000006e+01 -2.000000000000e+01 0.0 
4.000000000007e+01 -2.000000000000e+01 0.0 
3.900000000008e+01 -2.000000000000e+01 0.0 
3.800000000009e+01 -2.000000000000e+01 0.0 
3.700000000009e+01 -2.000000000000e+01 0.0 
3.600000000010e+01 -2.000000000000e+01 0.0 
3.500000000011e+01 -2.000000000000e+01 0.0 
3.400000000011e+01 -2.000000000000e+01 0.0 
3.300000000012e+01 -2.000000000000e+01 0.0 
3.200000000013e+01 -2.000000000000e+01 0.0 
3.100000000013e+01 -2.000000000000e+01 0.0 
3.000000000013e+01 -2.000000000000e+01 0.0 
2.900000000013e+01 -2.000000000000e+01 0.0 
2.800000000013e+01 -2.000000000000e+01 0.0 
2.700000000013e+01 -2.000000000000e+01 0.0 
2.600000000013e+01 -2.000000000000e+01 0.0 
2.500000000013e+01 -2.000000000000e+01 0.0 
2.400000000013e+01 -2.000000000000e+01 0.0 
2.300000000013e+01 -2.000000000000e+01 0.0 
2.200000000013e+01 -2.000000000000e+01 0.0 
2.100000000013e+01 -2.000000000000e+01 0.0 
2.000000000013e+01 -2.000000000000e+01 0.0 
1.900000000013e+01 -2.000000000000e+01 0.0 
1.800000000013e+01 -2.000000000000e+01 0.0 
1.700000000012e+01 -2.000000000000e+01 0.0 
1.600000000011e+01 -2.000000000000e+01 0.0 
1.500000000011e+01 -2.000000000000e+01 0.0 
1.400000000010e+01 -2.000000000000e+01 0.0 
1.300000000009e+01 -2.000000000000e+01 0.0 
1.200000000009e+01 -2.000000000000e+01 0.0 
1.100000000008e+01 -2.000000000000e+01 0.0 
1.000000000007e+01 -2.000000000000e+01 0.0 
9.000000000064e+00 -2.000000000000e+01 0.0 
8.000000000057e+00 -2.000000000000e+01 0.0 
7.000000000050e+00 -2.000000000000e+01 0.0 
6.000000000043e+00 -2.000000000000e+01 0.0 
5.000000000036e+00 -2.000000000000e+01 0.0 
4.000000000028e+00 -2.000000000000e+01 0.0 
3.000000000021e+00 -2.000000000000e+01 0.0 
2.000000000014e+00 -2.000000000000e+01 0.0 
1.000000000007e+00 -2.000000000000e+01 0.0 
5.000000000000e+01 -1.100000000000e+01 0.0 
5.000000000000e+01 -1.200000000000e+01 0.0 
5.000000000000e+01 -1.300000000000e+01 0.0 
5.000000000000e+01 -1.400000000000e+01 0.0 
5.000000000000e+01 -1.500000000000e+01 0.0 
5.000000000000e+01 -1.600000000000e+01 0.0 
5.000000000000e+01 -1.700000000000e+01 0.0 
5.000000000000e+01 -1.800000000000e+01 0.0 
5.000000000000e+01 -1.900000000000e+01 0.0 
2.000000000000e+01 0.0 0.0 
3.500000000000e+01 -1.000000000000e+01 0.0 
2.150000000000e+01 -1.000000000000e+00 0.0 
2.300000000000e+01 -2.000000000000e+00 0.0 
2.450000000000e+01 -3.000000000000e+00 0.0 
2.600000000000e+01 -4.000000000000e+00 0.0 
2.750000000000e+01 -5.000000000000e+00 0.0 
2.900000000000e+01 -6.000000000000e+00 0.0 
3.050000000000e+01 -7.000000000000e+00 0.0 
3.200000000000e+01 -8.000000000000e+00 0.0 
3.350000000000e+01 -9.000000000000e+00 0.0 
4.900000000000e+01 -1.000000000000e+01 0.0 
4.800000000000e+01 -1.000000000000e+01 0.0 
4.700000000000e+01 -1.000000000000e+01 0.0 
4.600000000000e+01 -1.000000000000e+01 0.0 
4.500000000000e+01 -1.000000000000e+01 0.0 
4.400000000000e+01 -1.000000000000e+01 0.0 
4.300000000000e+01 -1.000000000000e+01 0.0 
4.200000000000e+01 -1.000000000000e+01 0.0 
4.100000000000e+01 -1.000000000000e+01 0.0 
4.000000000000e+01 -1.000000000000e+01 0.0 
3.900000000000e+01 -1.000000000000e+01 0.0 
3.800000000000e+01 -1.000000000000e+01 0.0 
3.700000000000e+01 -1.000000000000e+01 0.0 
3.600000000000e+01 -1.000000000000e+01 0.0 
1.900000000000e+01 0.0 0.0 
1.800000000000e+01 0.0 0.0 
1.700000000000e+01 0.0 0.0 
1.600000000000e+01 0.0 0.0 
1.500000000000e+01 0.0 0.0 
1.400000000000e+01 0.0 0.0 
1.300000000000e+01 0.0 0.0 
1.200000000000e+01 0.0 0.0 
1.100000000000e+01 0.0 0.0 
1.000000000000e+01 0.0 0.0 
9.000000000000e+00 0.0 0.0 
8.000000000000e+00 0.0 0.0 
7.000000000000e+00 0.0 0.0 
6.000000000000e+00 0.0 0.0 
5.000000000000e+00 0.0 0.0 
4.000000000000e+00 0.0 0.0 
3.000000000000e+00 0.0 0.0 
2.000000000000e+00 0.0 0.0 
1.000000000000e+00 0.0 0.0 
2.075000000000e+01 -5.000000000006e-01 0.0 
2.225000000000e+01 -1.500000000000e+00 0.0 
2.375000000000e+01 -2.500000000000e+00 0.0 
2.525000000000e+01 -3.500000000000e+00 0.0 
2.675000000000e+01 -4.500000000000e+00 0.0 
2.825000000000e+01 -5.500000000000e+00 0.0 
2.975000000000e+01 -6.500000000000e+00 0.0 
3.125000000000e+01 -7.500000000000e+00 0.0 
3.275000000000e+01 -8.500000000000e+00 0.0 
3.425000000000e+01 -9.500000000000e+00 0.0 
2.226951693683e+01 -2.403913980114e+00 0.0 
1.650149491944e+01 -1.913490915758e+01 0.0 
1.050042386896e+01 -8.504605092970e-01 0.0 
1.553146524712e+01 -8.281255032105e-01 0.0 
1.150000000008e+01 -1.913397459621e+01 0.0 
2.530060260647e+01 -4.428336431260e+00 0.0 
8.651114563942e-01 -1.052096295641e+01 0.0 
2.050000000013e+01 -1.913397459622e+01 0.0 
2.819198729811e+01 -6.399519052838e+00 0.0 
2.445670302931e+01 -1.915649188023e+01 0.0 
3.117591465718e+01 -8.394293040695e+00 0.0 
7.465053044742e+00 -1.920411160581e+01 0.0 
6.398295709691e+00 -8.230098819370e-01 0.0 
2.849659607461e+01 -1.914296187762e+01 0.0 
3.418732642882e+01 -1.040265792588e+01 0.0 
8.386450935063e-01 -6.533605142809e+00 0.0 
9.178661865596e-01 -1.329769195597e+01 0.0 
3.149448624493e+01 -1.910466733764e+01 0.0 
3.552916747426e+01 -1.914628590759e+01 0.0 
4.449210346537e+01 -1.914359085008e+01 0.0 
4.140975975145e+01 -1.906941860733e+01 0.0 
3.847475958753e+01 -1.916622382724e+01 0.0 
3.653774794640e+01 -1.088712800241e+01 0.0 
4.047886341787e+01 -1.090139014048e+01 0.0 
4.348006339825e+01 -1.092792621489e+01 0.0 
4.919519968029e+01 -1.451526755068e+01 0.0 
4.500000000032e+00 -1.913397459621e+01 0.0 
1.856136921614e+01 -8.212235170404e-01 0.0 
3.499895312306e+00 -8.661165539723e-01 0.0 
9.076088696565e-01 -1.642306201891e+01 0.0 
4.655174095477e+01 -1.086183387525e+01 0.0 
9.430688970604e-01 -3.496112672958e+00 0.0 
3.353992337063e+01 -1.901202090820e+01 0.0 
2.249746016977e+01 -1.921262287282e+01 0.0 
2.650122741777e+01 -1.916123026018e+01 0.0 
1.863571384842e+01 -1.908325534840e+01 0.0 
1.450089971693e+01 -1.917691901860e+01 0.0 
1.350044695317e+01 -8.659695299584e-01 0.0 
3.849987469880e+01 -1.084154983397e+01 0.0 
9.454419857884e+00 -1.900818879936e+01 0.0 
4.917398660523e+01 -1.645692866081e+01 0.0 
8.500000000000e+00 -8.660254037844e-01 0.0 
8.660319230785e-01 -8.500111697188e+00 0.0 
4.649022621545e+01 -1.930506220113e+01 0.0 
2.667688107845e+01 -5.420288124331e+00 0.0 
2.379251615665e+01 -3.412225477429e+00 0.0 
2.966631491830e+01 -7.389030232731e+00 0.0 
3.267915035995e+01 -9.396934932445e+00 0.0 
2.074836922338e+01 -1.320054020319e+00 0.0 
4.915985743621e+01 -1.261973384855e+01 0.0 
2.527129768623e+00 -1.931592414663e+01 0.0 
1.538676247410e+00 -8.436956619311e-01 0.0 
4.908096641539e+01 -1.842484004551e+01 0.0 
3.478612492673e+01 -1.090889364140e+01 0.0 
3.409757055860e+01 -1.131991530427e+01 0.0 
3.501895309466e+01 -1.177687842717e+01 0.0 
3.407758073088e+01 -1.224293381580e+01 0.0 
3.484541875390e+01 -1.277051428430e+01 0.0 
3.400322025842e+01 -1.319022775640e+01 0.0 
3.321672625034e+01 -1.266779191233e+01 0.0 
3.315244139236e+01 -1.360984106532e+01 0.0 
3.236335186892e+01 -1.308463225210e+01 0.0 
3.478337442841e+01 -1.372341158982e+01 0.0 
3.230105923633e+01 -1.403023731610e+01 0.0 
3.150954055289e+01 -1.350301767700e+01 0.0 
3.144604792090e+01 -1.444931742516e+01 0.0 
3.065653897123e+01 -1.392357262981e+01 0.0 
3.071897610812e+01 -1.297447031198e+01 0.0 
2.986790411740e+01 -1.339226181535e+01 0.0 
2.993181466745e+01 -1.244703272398e+01 0.0 
2.908023061869e+01 -1.286254537734e+01 0.0 
2.901619051372e+01 -1.380881655279e+01 0.0 
2.822986160390e+01 -1.327695262116e+01 0.0 
2.829453476870e+01 -1.233265343811e+01 0.0 
2.744542905518e+01 -1.274510491105e+01 0.0 
2.751120089246e+01 -1.180368086886e+01 0.0 
2.666218649885e+01 -1.221619339205e+01 0.0 
2.672371209234e+01 -1.127125228527e+01 0.0 
2.587763216302e+01 -1.168539979114e+01 0.0 
2.581165585299e+01 -1.262994410089e+01 0.0 
2.502890882577e+01 -1.209827323619e+01 0.0 
2.509631327757e+01 -1.115492410304e+01 0.0 
2.424662989877e+01 -1.156630981079e+01 0.0 
2.431704046904e+01 -1.062389179334e+01 0.0 
2.346445438728e+01 -1.103427680694e+01 0.0 
2.339382552877e+01 -1.197964871788e+01 0.0 
2.260936050780e+01 -1.144513277642e+01 0.0 
2.268075012022e+01 -1.049911928216e+01 0.0 
2.182525737661e+01 -1.090920811464e+01 0.0 
2.189682319817e+01 -9.961716944568e+00 0.0 
2.104174127792e+01 -1.037266986667e+01 0.0 
2.111304367575e+01 -9.424179358711e+00 0.0 
2.025306185381e+01 -9.832727364719e+00 0.0 
2.018141124247e+01 -1.079140628871e+01 0.0 
1.938594498257e+01 -1.025147354112e+01 0.0 
1.946106490453e+01 -9.288010758448e+00 0.0 
1.858929958352e+01 -9.706319802516e+00 0.0 
1.851540991219e+01 -1.067205988724e+01 0.0 
1.771485303178e+01 -1.012504443115e+01 0.0 
1.764134552256e+01 -1.109360378538e+01 0.0 
1.683745148095e+01 -1.054496365337e+01 0.0 
1.691852964353e+01 -9.582555261178e+00 0.0 
1.603603813062e+01 -1.000160132379e+01 0.0 
1.595824239350e+01 -1.096750698862e+01 0.0 
1.515080624291e+01 -1.041639501931e+01 0.0 
1.523171602559e+01 -9.451711491453e+00 0.0 
1.434621060709e+01 -9.871956467464e+00 0.0 
1.426777178765e+01 -1.083749501371e+01 0.0 
1.345775282374e+01 -1.028803175500e+01 0.0 
1.354103873368e+01 -9.324918457162e+00 0.0 
1.265072018622e+01 -9.742612837270e+00 0.0 
1.257285762070e+01 -1.071557782384e+01 0.0 
1.175874815690e+01 -1.015972324288e+01 0.0 
1.184203019714e+01 -9.193604071377e+00 0.0 
1.094927709905e+01 -9.612103238656e+00 0.0 
1.086938022910e+01 -1.058685085646e+01 0.0 
1.005424098961e+01 -1.002939116380e+01 0.0 
9.977974613295e+00 -1.101324897989e+01 0.0 
1.012915646404e+01 -9.051815821181e+00 0.0 
9.237127782494e+00 -9.471239055559e+00 0.0 
9.308426593771e+00 -8.483376461131e+00 0.0 
8.418806073345e+00 -8.910712374517e+00 0.0 
2.253688464062e+01 -1.239459402279e+01 0.0 
8.495126726666e+00 -7.921646665254e+00 0.0 
9.389727383206e+00 -7.512103628377e+00 0.0 
7.601560812974e+00 -8.349460349344e+00 0.0 
7.525680547759e+00 -9.339736686940e+00 0.0 
7.677888324502e+00 -7.359727833346e+00 0.0 
6.782001206724e+00 -7.788454494773e+00 0.0 
6.858778622885e+00 -6.797338062822e+00 0.0 
2.196596590865e+01 -8.979025665442e+00 0.0 
2.816540108272e+01 -1.422634142353e+01 0.0 
5.961601194403e+00 -7.226824010712e+00 0.0 
6.038171749656e+00 -6.234825887079e+00 0.0 
6.936257279557e+00 -5.805287640737e+00 0.0 
6.115068918323e+00 -5.242109758768e+00 0.0 
3.564391741903e+01 -1.329240553876e+01 0.0 
3.558115605778e+01 -1.425902892003e+01 0.0 
3.645445282201e+01 -1.381970786460e+01 0.0 
3.639744204358e+01 -1.479198128612e+01 0.0 
3.727266909778e+01 -1.435399586226e+01 0.0 
5.216667013081e+00 -5.671788584287e+00 0.0 
3.220697293295e+01 -1.499594545107e+01 0.0 
3.551112158269e+01 -1.523479869250e+01 0.0 
2.836056961467e+01 -1.139032434851e+01 0.0 
2.516730388602e+01 -1.021382726837e+01 0.0 
1.844436907403e+01 -1.164097215196e+01 0.0 
5.885434318740e+00 -8.218694781467e+00 0.0 
5.064071066867e+00 -7.656614643901e+00 0.0 
4.988089103470e+00 -8.649722082718e+00 0.0 
1.079421050408e+01 -1.157014985435e+01 0.0 
9.902420005256e+00 -1.199903342656e+01 0.0 
1.071994252214e+01 -1.255727909771e+01 0.0 
9.826974788171e+00 -1.298659581767e+01 0.0 
1.064607883789e+01 -1.354595476388e+01 0.0 
9.751541265343e+00 -1.397556905071e+01 0.0 
8.932296185869e+00 -1.341553353988e+01 0.0 
8.856399248106e+00 -1.440570715508e+01 0.0 
8.036186803543e+00 -1.384470558472e+01 0.0 
1.057112875118e+01 -1.453516759081e+01 0.0 
1.146582585687e+01 -1.410539926903e+01 0.0 
7.959894480382e+00 -1.483563350928e+01 0.0 
7.138792279156e+00 -1.427465094140e+01 0.0 
7.062506792418e+00 -1.526615385482e+01 0.0 
6.240693558277e+00 -1.470508863040e+01 0.0 
6.316957575451e+00 -1.371212581281e+01 0.0 
5.418183007107e+00 -1.414253605022e+01 0.0 
5.494748364428e+00 -1.314886770603e+01 0.0 
1.756825565873e+01 -1.206433872514e+01 0.0 
1.837565773345e+01 -1.261356468266e+01 0.0 
1.749574831391e+01 -1.303769280014e+01 0.0 
1.830539187332e+01 -1.358828364284e+01 0.0 
1.742278925170e+01 -1.401367746928e+01 0.0 
1.823303007798e+01 -1.456432294258e+01 0.0 
1.734941694138e+01 -1.499213734361e+01 0.0 
1.653760041637e+01 -1.443920312098e+01 0.0 
3.056237977307e+01 -1.487132260174e+01 0.0 
1.866469084762e+01 -8.742953000418e+00 0.0 
1.953669694916e+01 -8.326038909849e+00 0.0 
1.874194303780e+01 -7.780688158966e+00 0.0 
1.961032016741e+01 -7.366854697285e+00 0.0 
1.881715755159e+01 -6.821102209649e+00 0.0 
1.968369797150e+01 -6.407747217358e+00 0.0 
1.889237123259e+01 -5.858375520026e+00 0.0 
1.802038875366e+01 -6.276202618170e+00 0.0 
1.809793837984e+01 -5.307629520489e+00 0.0 
1.721985207997e+01 -5.728242054488e+00 0.0 
1.729850893523e+01 -4.756990819347e+00 0.0 
1.641745664240e+01 -5.174636548624e+00 0.0 
2.495978509456e+01 -1.304406404294e+01 0.0 
1.911567814831e+01 -1.413854250293e+01 0.0 
1.904387332608e+01 -1.511463127723e+01 0.0 
1.992115934240e+01 -1.468788025898e+01 0.0 
7.013706899628e+00 -4.812582868662e+00 0.0 
5.342091874585e+00 -1.513658157269e+01 0.0 
1.139098043784e+01 -1.509488509480e+01 0.0 
1.228151810610e+01 -1.465617481983e+01 0.0 
1.646373110164e+01 -1.541993323337e+01 0.0 
5.293328636712e+00 -4.678385108584e+00 0.0 
1.975965862987e+01 -5.448124345648e+00 0.0 
2.054318374236e+01 -5.992561293251e+00 0.0 
3.721453439063e+01 -1.533216152738e+01 0.0 
3.809302733893e+01 -1.489235527381e+01 0.0 
1.220852788900e+01 -1.565304565230e+01 0.0 
4.394120899730e+00 -5.108397613210e+00 0.0 
8.779354620288e+00 -1.539524721159e+01 0.0 
1.817791047702e+01 -4.338570146253e+00 0.0 
4.518860013839e+00 -1.457343189307e+01 0.0 
4.442712140414e+00 -1.556841391069e+01 0.0 
8.115343466391e+00 -1.285760324283e+01 0.0 
1.985334703171e+01 -1.566478400426e+01 0.0 
2.071953850276e+01 -1.522074243119e+01 0.0 
1.634012953883e+01 -6.154777738301e+00 0.0 
1.553479994708e+01 -5.593730508879e+00 0.0 
1.561265946942e+01 -4.617761762647e+00 0.0 
1.470674212978e+01 -5.064576488228e+00 0.0 
1.464498299883e+01 -6.026514471420e+00 0.0 
1.383271561817e+01 -5.467796261169e+00 0.0 
1.389241253067e+01 -4.504338666645e+00 0.0 
1.301868735463e+01 -4.907185188626e+00 0.0 
1.294514184846e+01 -5.888160903592e+00 0.0 
1.212955968622e+01 -5.328262335277e+00 0.0 
1.220721122383e+01 -4.341264976687e+00 0.0 
1.131324345897e+01 -4.766773516508e+00 0.0 
5.266597955397e+00 -1.613148974258e+01 0.0 
1.737805990867e+01 -3.786677807525e+00 0.0 
3.078438094513e+01 -1.203225297748e+01 0.0 
1.131569882285e+01 -1.608511932110e+01 0.0 
1.728478341782e+01 -1.596017432313e+01 0.0 
3.803465906019e+01 -1.587509751228e+01 0.0 
3.891681276677e+01 -1.543395196905e+01 0.0 
3.897340985302e+01 -1.444710288980e+01 0.0 
3.980095968193e+01 -1.499059496613e+01 0.0 
3.974334598189e+01 -1.597921884150e+01 0.0 
4.062964983717e+01 -1.553518690417e+01 0.0 
4.068729602479e+01 -1.454434445295e+01 0.0 
4.151772679790e+01 -1.508974196007e+01 0.0 
4.157505195739e+01 -1.409694289912e+01 0.0 
4.240699932656e+01 -1.464347955968e+01 0.0 
4.234898051011e+01 -1.563721375790e+01 0.0 
4.323934606035e+01 -1.519082036405e+01 0.0 
4.329740528208e+01 -1.419587509788e+01 0.0 
4.413056841369e+01 -1.474359631875e+01 0.0 
4.418850110108e+01 -1.374786684042e+01 0.0 
4.502219770667e+01 -1.429605103525e+01 0.0 
4.496411937907e+01 -1.529215882720e+01 0.0 
4.490027319897e+00 -4.154167794594e+00 0.0 
1.565080385988e+01 -1.486411982419e+01 0.0 
1.557610691279e+01 -1.584855627870e+01 0.0 
4.195350646612e+00 -8.089117689096e+00 0.0 
4.124027797830e+00 -9.082831955007e+00 0.0 
4.917944318925e+00 -9.643530901533e+00 0.0 
4.020105689502e+00 -1.007439673661e+01 0.0 
4.587185899277e+01 -1.484039992728e+01 0.0 
4.580078661551e+01 -1.584043391042e+01 0.0 
2.061956522375e+01 -5.046701343981e+00 0.0 
2.139572955529e+01 -5.579553449826e+00 0.0 
3.715344357292e+01 -1.631485124583e+01 0.0 
3.618886196443e+00 -1.500471207167e+01 0.0 
3.695606940204e+00 -1.400939692294e+01 0.0 
2.438890661143e+01 -9.686110599723e+00 0.0 
2.523267572778e+01 -9.276766000622e+00 0.0 
2.446094171539e+01 -8.751904591412e+00 0.0 
2.529089822738e+01 -8.321495612547e+00 0.0 
2.606882688827e+01 -8.864724051119e+00 0.0 
2.452116646430e+01 -7.792756462004e+00 0.0 
1.235543269617e+01 -1.365845617339e+01 0.0 
4.318116874181e+01 -1.618567469992e+01 0.0 
7.835066111909e+00 -5.376366223896e+00 0.0 
7.905687335704e+00 -4.382539065697e+00 0.0 
3.542640009567e+00 -1.600035116542e+01 0.0 
1.572431503071e+01 -1.388358386695e+01 0.0 
2.574684696680e+01 -1.357896141127e+01 0.0 
2.488842657651e+01 -1.399674354505e+01 0.0 
2.568301775611e+01 -1.453552048595e+01 0.0 
2.481535572009e+01 -1.495542756508e+01 0.0 
2.561729699688e+01 -1.549784648532e+01 0.0 
2.474623061296e+01 -1.592058894178e+01 0.0 
2.394234041695e+01 -1.537572575827e+01 0.0 
2.065825452567e+01 -1.621899055217e+01 0.0 
2.387180528935e+01 -1.634552264687e+01 0.0 
4.585364400844e+01 -1.383912334080e+01 0.0 
1.998744432052e+01 -1.370317155541e+01 0.0 
1.205356951443e+01 -6.313580285498e+00 0.0 
5.396543905849e+00 -3.731818611283e+00 0.0 
1.139652573295e+01 -3.745819399350e+00 0.0 
3.574124306703e+00 -4.551456826011e+00 0.0 
3.494140761930e+00 -5.539787055649e+00 0.0 
1.213651452413e+01 -1.664505033022e+01 0.0 
2.555045568519e+01 -1.646529356744e+01 0.0 
2.641671114986e+01 -1.603899382371e+01 0.0 
2.612920721894e+01 -7.906435260873e+00 0.0 
2.690339829698e+01 -8.456969591431e+00 0.0 
1.978024383368e+01 -1.664410216353e+01 0.0 
3.732829979082e+01 -1.336926601859e+01 0.0 
4.074336584605e+01 -1.355133328401e+01 0.0 
4.163204691081e+01 -1.310280943992e+01 0.0 
3.773826114429e+00 -3.493444309145e+00 0.0 
1.228783001032e+01 -3.374822835872e+00 0.0 
4.057110462520e+01 -1.652588478000e+01 0.0 
2.132535497898e+01 -6.523623360525e+00 0.0 
2.216932532211e+01 -6.110044769206e+00 0.0 
1.825781152128e+01 -3.370146817147e+00 0.0 
1.745679445888e+01 -2.812942552063e+00 0.0 
4.666517057280e+01 -1.539981381543e+01 0.0 
4.660575894464e+01 -1.639014410186e+01 0.0 
4.838230979954e+00 -1.063643436446e+01 0.0 
3.938942630206e+00 -1.106778981745e+01 0.0 
1.302967218620e+01 -1.621373452436e+01 0.0 
1.049548003190e+01 -4.204825123240e+00 0.0 
4.573571907195e+01 -1.683820511148e+01 0.0 
1.483686335807e+01 -1.430849689310e+01 0.0 
1.490982658890e+01 -1.332679386284e+01 0.0 
3.190805600162e+00 -9.510968358545e+00 0.0 
2.146625721848e+01 -4.642437303115e+00 0.0 
2.069866208266e+01 -4.111852942193e+00 0.0 
1.286859345584e+01 -6.873252723348e+00 0.0 
1.041794493184e+01 -5.194814260291e+00 0.0 
2.671081808965e+00 -4.976806516331e+00 0.0 
1.295786792925e+01 -1.720506531799e+01 0.0 
3.968438206511e+01 -1.696869067241e+01 0.0 
2.308550456051e+01 -1.579963151273e+01 0.0 
2.315593682844e+01 -1.482967445235e+01 0.0 
2.299471449450e+01 -1.677069968132e+01 0.0 
1.057344714696e+01 -3.214252277840e+00 0.0 
1.124057603753e+01 -1.707713739755e+01 0.0 
2.718402535754e+00 -1.543629882103e+01 0.0 
2.638549692805e+01 -1.696744916809e+01 0.0 
2.723416349007e+01 -1.658104204545e+01 0.0 
2.210193351704e+01 -7.046769643417e+00 0.0 
2.295180925161e+01 -6.657397605239e+00 0.0 
2.301355235833e+01 -5.709111896800e+00 0.0 
2.379052718281e+01 -6.254965406962e+00 0.0 